ITEM: TIMESTEP
0
ITEM: NUMBER OF ATOMS
32
ITEM: BOX BOUNDS pp pp pp
0.0 3.35919
0.0 3.35919
0.0 3.35919
ITEM: ATOMS x y z
0.0 0.0 0.0
0.8397976 0.8397976 0.0
0.8397976 0.0 0.8397976
0.0 0.8397976 0.8397976
1.679595 0.0 0.0
2.5193925 0.8397976 0.0
2.5193925 0.0 0.8397976
1.679595 0.8397976 0.8397976
0.0 1.679595 0.0
0.8397976 2.5193925 0.0
0.8397976 1.679595 0.8397976
0.0 2.5193925 0.8397976
1.679595 1.679595 0.0
2.5193925 2.5193925 0.0
2.5193925 1.679595 0.8397976
1.679595 2.5193925 0.8397976
0.0 0.0 1.679595
0.8397976 0.8397976 1.679595
0.8397976 0.0 2.5193925
0.0 0.8397976 2.5193925
1.679595 0.0 1.679595
2.5193925 0.8397976 1.679595
2.5193925 0.0 2.5193925
1.679595 0.8397976 2.5193925
0.0 1.679595 1.679595
0.8397976 2.5193925 1.679595
0.8397976 1.679595 2.5193925
0.0 2.5193925 2.5193925
1.679595 1.679595 1.679595
2.5193925 2.5193925 1.679595
2.5193925 1.679595 2.5193925
1.679595 2.5193925 2.5193925
