ITEM: TIMESTEP
1
ITEM: NUMBER OF ATOMS
32
ITEM: BOX BOUNDS pp pp pp
0.0 3.35919
0.0 3.35919
0.0 3.35919
ITEM: ATOMS x y z
0.8909446 0.2327257 0.8270293
0.8134111 1.4025122 0.6832492
3.2997995 0.894979 0.9802822
1.858885 0.8734868 0.7925371
0.0306047 3.2125511 0.195826
0.4285184 2.396184 0.9175292
1.6239097 1.7145508 0.0090337
1.4833142 2.2998123 0.9332772
2.5965631 3.2883413 0.7917544
2.6915241 2.2235756 0.7531774
3.3318296 3.1755264 1.4690242
0.7122827 0.889658 3.2203009
1.6320423 0.0596364 3.1040931
0.8138747 0.9277646 1.8261867
1.594416 0.1847161 1.8123167
0.9773026 1.6621171 2.5705765
1.6269431 1.6195529 1.6962532
2.6644054 0.6635576 3.335165
3.1672692 1.5551236 3.3189335
3.2865274 0.8019327 2.4698479
2.5257211 0.980074 1.7320621
2.5999158 0.0519314 2.5156739
1.7515589 0.9114054 2.5239711
2.4906144 1.5950375 2.5749367
0.7224442 2.3310158 3.256671
0.7049059 3.1914992 2.6601594
0.2250154 1.7335974 1.7874922
0.892856 2.6134095 1.8668396
2.4570997 2.5714197 3.2073076
3.2211912 2.5162885 2.3925898
2.310518 2.7757926 1.6934012
1.6800283 2.3972557 2.5479188
