ITEM: TIMESTEP
0
ITEM: NUMBER OF ATOMS
7071
ITEM: BOX BOUNDS pp pp pp
-84.7009964 84.7009964
-61.6484986 61.6484986
-40.0732002 40.0732002
ITEM: ATOMS x y z id peatom type fx fy fz
-65.8951646 37.7911415 -18.5904408 1 -4.1908598 1 1.0 0.0 0.0
-63.724453 38.5198288 -20.2998791 2 -4.2498894 1 1.0 0.0 0.0
-65.6803742 40.0024796 -20.0874119 3 -4.3867798 1 1.0 0.0 0.0
-62.0250168 40.0898933 -19.3784351 4 -4.3597999 1 1.0 0.0 0.0
-63.9970246 42.0299683 -19.304142 5 -4.2518301 1 1.0 0.0 0.0
-64.3160095 37.1292877 -16.9732456 6 -4.1781602 1 1.0 0.0 0.0
-67.6159592 39.7360306 -18.5159836 7 -4.38901 1 1.0 0.0 0.0
-64.1555862 39.8355332 -18.1866627 8 -4.2845802 1 1.0 0.0 0.0
-66.1607971 39.0101814 -16.5989609 9 -4.3742199 1 1.0 0.0 0.0
-64.6529389 40.7750511 -15.7760163 10 -4.3394599 1 1.0 0.0 0.0
-62.1520653 38.0494537 -18.3080826 11 -4.1964002 1 1.0 0.0 0.0
-62.7534447 39.0559235 -16.3307095 12 -4.3281698 1 1.0 0.0 0.0
-65.9422684 41.3139877 -17.846201 13 -4.3451901 1 1.0 0.0 0.0
-62.6672135 41.3435822 -17.2572823 14 -4.2971301 1 1.0 0.0 0.0
63.8406602 -42.6653176 17.7585182 15 -4.4138398 1 1.0 0.0 0.0
65.9990158 -41.3075714 17.6490402 16 -4.3234401 1 1.0 0.0 0.0
62.5853958 -40.3288384 17.6064797 17 -4.1370301 1 1.0 0.0 0.0
64.609581 -39.303009 17.5206433 18 -4.3347502 1 1.0 0.0 0.0
62.1105614 -41.9532814 19.5170899 19 -4.3063698 1 1.0 0.0 0.0
63.552517 -42.4394417 21.500557 20 -4.3119202 1 1.0 0.0 0.0
65.4896164 -42.8265953 19.7996903 21 -4.3031502 1 1.0 0.0 0.0
67.5627671 -41.5704499 19.6353035 22 -4.3715501 1 1.0 0.0 0.0
62.8235665 -38.6835671 19.0681114 23 -4.2767906 1 1.0 0.0 0.0
62.2211838 -40.0334244 21.1346054 24 -4.4161501 1 1.0 0.0 0.0
65.623787 -40.9782448 21.4372406 25 -4.3211599 1 1.0 0.0 0.0
64.2108078 -40.729805 19.4779816 26 -4.3824701 1 1.0 0.0 0.0
64.4205246 -38.888733 21.0626316 27 -4.2698698 1 1.0 0.0 0.0
66.5905686 -39.4049759 19.200676 28 -4.2328901 1 1.0 0.0 0.0
-65.4078064 35.5922699 -23.6661091 29 -4.3544598 1 1.0 0.0 0.0
-63.7661324 37.3139877 -22.6290951 30 -4.2937198 1 1.0 0.0 0.0
-61.7416077 35.8051987 -23.0133152 31 -4.2734294 1 1.0 0.0 0.0
-69.0518036 38.9717102 -22.7073193 32 -4.3030501 1 1.0 0.0 0.0
-67.1992264 37.4275475 -23.2742748 33 -4.3105602 1 1.0 0.0 0.0
-67.2156677 39.6484947 -24.26857 34 -4.356 1 1.0 0.0 0.0
-65.0649338 38.0320625 -24.4351979 35 -4.3136201 1 1.0 0.0 0.0
-63.4720459 39.6672402 -23.6361351 36 -4.3055701 1 1.0 0.0 0.0
-61.6948471 38.1019707 -24.2018871 37 -4.3076701 1 1.0 0.0 0.0
-60.2000504 39.6582375 -23.4187756 38 -4.3355799 1 1.0 0.0 0.0
-67.1553574 42.9999542 -22.7291985 39 -4.2351895 1 1.0 0.0 0.0
-65.2251892 41.2289124 -23.2297917 40 -4.3827901 1 1.0 0.0 0.0
-63.6655045 43.2812004 -22.4128628 41 -4.1220698 1 1.0 0.0 0.0
-61.7763253 41.6142159 -22.8717786 42 -4.4418803 1 1.0 0.0 0.0
-65.4017029 44.6545944 -21.97398 43 -4.30336 1 1.0 0.0 0.0
-67.7292862 33.9990234 -18.7924881 44 -4.2764001 1 1.0 0.0 0.0
-67.3808289 35.0358276 -22.1513424 45 -4.3453798 1 1.0 0.0 0.0
-69.4287339 36.7771569 -21.8528786 46 -4.3025999 1 1.0 0.0 0.0
-67.5798798 36.3838272 -19.7640209 47 -4.32513 1 1.0 0.0 0.0
-65.6473313 34.6036759 -20.3920479 48 -4.3060894 1 1.0 0.0 0.0
-65.8340073 36.8571664 -21.4521466 49 -4.1482701 1 1.0 0.0 0.0
-63.7930641 36.3512802 -19.0791721 50 -4.15909 1 1.0 0.0 0.0
-63.7827263 34.9956398 -21.847908 51 -4.0891094 1 1.0 0.0 0.0
-62.4012528 34.682209 -20.0444546 52 -4.2625895 1 1.0 0.0 0.0
-62.0251846 37.0327415 -20.7172833 53 -4.2762399 1 1.0 0.0 0.0
-60.6166077 36.0405808 -18.8602104 54 -4.3971 1 1.0 0.0 0.0
-60.0938377 35.2859955 -21.0552616 55 -4.2196498 1 1.0 0.0 0.0
-58.47435 36.87986 -20.3587875 56 -4.2896295 1 1.0 0.0 0.0
-70.8802796 39.9018708 -19.0560074 57 -3.99229 1 1.0 0.0 0.0
-69.2756958 38.10112 -19.2566147 58 -4.2975502 1 1.0 0.0 0.0
-69.0809937 40.3216934 -20.5838394 59 -4.30967 1 1.0 0.0 0.0
-67.6793061 38.4324112 -20.911478 60 -4.2163501 1 1.0 0.0 0.0
-67.2324219 40.6598969 -21.9801502 61 -4.3729901 1 1.0 0.0 0.0
-65.4223709 38.9809648 -22.2221928 62 -4.2514401 1 1.0 0.0 0.0
-60.0519943 37.4965897 -22.1256161 63 -4.25665 1 1.0 0.0 0.0
-62.0692291 39.1402626 -21.8813306 64 -4.23416 1 1.0 0.0 0.0
-60.236805 38.4971466 -20.1803017 65 -4.1894202 1 1.0 0.0 0.0
-58.2356606 39.0935288 -21.4039784 66 -4.3315706 1 1.0 0.0 0.0
-58.6679726 40.2567215 -19.151144 67 -4.2956801 1 1.0 0.0 0.0
-68.9255524 42.5073776 -21.5051232 68 -4.2216001 1 1.0 0.0 0.0
-67.3732071 41.831089 -19.8441678 69 -4.3447399 1 1.0 0.0 0.0
-69.4058228 43.6085434 -19.1308632 70 -4.1608601 1 1.0 0.0 0.0
-67.4736634 44.2186203 -20.4892674 71 -4.2888298 1 1.0 0.0 0.0
-65.5028382 42.433281 -21.0616722 72 -4.3049502 1 1.0 0.0 0.0
-65.7230606 43.5841294 -18.9504548 73 -4.3598495 1 1.0 0.0 0.0
-63.7705345 44.2226906 -20.2356033 74 -4.3352294 1 1.0 0.0 0.0
-63.5709763 40.7670403 -21.3287201 75 -4.3599 1 1.0 0.0 0.0
-62.0290833 42.3864174 -20.3909264 76 -4.3362599 1 1.0 0.0 0.0
-60.4499169 41.7048378 -18.6255436 77 -4.2413802 1 1.0 0.0 0.0
-60.3789368 40.687397 -21.1624966 78 -4.3951402 1 1.0 0.0 0.0
-59.8775102 43.1165924 -21.8286743 79 -4.2195101 1 1.0 0.0 0.0
-60.4819336 44.1404495 -19.8122692 80 -4.3071494 1 1.0 0.0 0.0
-58.7155762 42.2806397 -20.0906181 81 -4.1438694 1 1.0 0.0 0.0
-65.5258789 45.7888069 -19.8763066 82 -4.3091898 1 1.0 0.0 0.0
-61.955227 44.5112 -21.7248841 83 -4.2414498 1 1.0 0.0 0.0
-62.0694008 45.950203 -19.4858341 84 -4.2378802 1 1.0 0.0 0.0
-65.9883424 33.3727951 -16.9362164 85 -4.3854098 1 1.0 0.0 0.0
-62.5628662 33.2599793 -16.2738857 86 -4.3848901 1 1.0 0.0 0.0
-69.5794449 35.6888047 -18.3419037 87 -4.40902 1 1.0 0.0 0.0
-67.804451 35.0239983 -16.7514782 88 -4.2598701 1 1.0 0.0 0.0
-69.8325501 36.6545944 -16.0349712 89 -4.3786898 1 1.0 0.0 0.0
-67.8938828 37.3407364 -17.3444023 90 -4.3213401 1 1.0 0.0 0.0
-64.075119 33.9204788 -18.3475113 91 -4.2430201 1 1.0 0.0 0.0
-65.8885652 35.5009079 -18.1618977 92 -4.2865 1 1.0 0.0 0.0
-64.2236862 35.0212784 -15.9583502 93 -4.2523999 1 1.0 0.0 0.0
-66.1396179 36.6468277 -15.7010803 94 -4.3685598 1 1.0 0.0 0.0
-60.4707527 33.8777008 -17.7234955 95 -4.3246598 1 1.0 0.0 0.0
-62.4659729 35.4718018 -17.3812676 96 -4.27948 1 1.0 0.0 0.0
-60.9476166 35.0656624 -15.6225376 97 -4.3671498 1 1.0 0.0 0.0
-62.8610116 36.920292 -15.0417948 98 -4.3334799 1 1.0 0.0 0.0
-60.848175 37.3910446 -16.5758801 99 -4.3070998 1 1.0 0.0 0.0
-59.1121483 35.7537842 -17.0509834 100 -4.2592502 1 1.0 0.0 0.0
-69.695488 38.9781266 -17.0866509 101 -4.3211894 1 1.0 0.0 0.0
-68.1529999 38.2843247 -15.1770048 102 -4.3322401 1 1.0 0.0 0.0
-68.187851 40.7207985 -16.3908196 103 -4.2075 1 1.0 0.0 0.0
-64.5275879 38.5488053 -14.7913409 104 -4.3338494 1 1.0 0.0 0.0
-60.5327568 39.6404801 -17.5184002 105 -4.2878294 1 1.0 0.0 0.0
-60.9166146 40.6381912 -15.43219 106 -4.3420501 1 1.0 0.0 0.0
-58.8704072 37.8461342 -18.1870594 107 -4.3831701 1 1.0 0.0 0.0
-58.9596864 39.1041298 -15.7630339 108 -4.3082399 1 1.0 0.0 0.0
-69.4227829 41.3307572 -18.3555298 109 -4.1873598 1 1.0 0.0 0.0
-69.6323548 42.2744751 -15.8342028 110 -4.14011 1 1.0 0.0 0.0
-67.6632157 42.936203 -17.4140473 111 -4.4452901 1 1.0 0.0 0.0
-68.0012131 44.2268791 -15.1164932 112 -4.2936602 1 1.0 0.0 0.0
-66.4426804 42.3334046 -15.2992258 113 -4.1775098 1 1.0 0.0 0.0
-64.2550202 42.9614792 -16.9340516 114 -4.3653898 1 1.0 0.0 0.0
-62.3129997 43.558239 -18.2572689 115 -4.3449998 1 1.0 0.0 0.0
-60.9969178 42.8243752 -16.3846493 116 -4.3553701 1 1.0 0.0 0.0
-58.9256402 41.3901901 -16.8166409 117 -4.2732301 1 1.0 0.0 0.0
-58.9036102 43.3713226 -17.9629726 118 -4.3213201 1 1.0 0.0 0.0
-67.6322174 45.2910538 -18.5084477 119 -4.33674 1 1.0 0.0 0.0
-66.118103 44.6881295 -16.5489464 120 -4.4010906 1 1.0 0.0 0.0
-64.252655 45.3348236 -17.945181 121 -4.3659001 1 1.0 0.0 0.0
-60.7267151 45.2911835 -17.7487393 122 -4.1827598 1 1.0 0.0 0.0
-62.6040383 44.6908493 -16.1797943 123 -4.36762 1 1.0 0.0 0.0
-68.0855713 36.1644859 -14.229353 124 -4.1279602 1 1.0 0.0 0.0
-66.4957047 34.3208313 -14.5943394 125 -4.3723302 1 1.0 0.0 0.0
-64.733078 35.956852 -13.8978672 126 -4.3432002 1 1.0 0.0 0.0
-62.7509003 34.4020805 -14.2029858 127 -4.3144398 1 1.0 0.0 0.0
-61.167675 36.1187439 -13.2969294 128 -4.38269 1 1.0 0.0 0.0
-59.0364227 36.933735 -14.6109295 129 -4.35851 1 1.0 0.0 0.0
-69.8971406 40.0198669 -14.8153029 130 -4.3568401 1 1.0 0.0 0.0
-68.6068726 39.6296311 -12.9714556 131 -4.3133998 1 1.0 0.0 0.0
-66.5449982 37.8672142 -13.3684998 132 -4.3959398 1 1.0 0.0 0.0
-64.8408052 39.4256897 -12.4594784 133 -4.34058 1 1.0 0.0 0.0
-66.5158615 40.2379685 -14.2347212 134 -4.2533798 1 1.0 0.0 0.0
-63.1205368 37.7950897 -12.6808434 135 -4.22368 1 1.0 0.0 0.0
-61.1571693 39.4484978 -12.0941715 136 -4.2380901 1 1.0 0.0 0.0
-61.0822907 38.3875313 -14.3170338 137 -4.3749399 1 1.0 0.0 0.0
-62.8081589 39.9807702 -13.5797644 138 -4.2388401 1 1.0 0.0 0.0
-59.4826317 40.0656014 -13.4958525 139 -4.3113294 1 1.0 0.0 0.0
-68.1628952 41.7272797 -14.0973501 140 -4.0104198 1 1.0 0.0 0.0
-66.7132111 41.1062355 -11.8788986 141 -4.2509198 1 1.0 0.0 0.0
-64.6500702 41.928627 -13.5291138 142 -4.1908798 1 1.0 0.0 0.0
-66.6925507 43.5413513 -13.1423264 143 -4.3662601 1 1.0 0.0 0.0
-64.70224 43.9291154 -14.5529022 144 -4.3263106 1 1.0 0.0 0.0
-62.7507248 42.054512 -14.7865296 145 -4.2751098 1 1.0 0.0 0.0
-63.1112175 41.3142395 -11.5303421 146 -4.4116702 1 1.0 0.0 0.0
-61.0333328 41.8584672 -12.8903466 147 -4.2927294 1 1.0 0.0 0.0
-63.0104256 43.5046082 -12.7583447 148 -4.2508106 1 1.0 0.0 0.0
-61.1027908 43.973011 -14.1073685 149 -4.3696694 1 1.0 0.0 0.0
-59.1909218 42.342041 -14.7034178 150 -4.4117694 1 1.0 0.0 0.0
60.3770676 -42.5112 14.3483696 151 -4.3056898 1 1.0 0.0 0.0
66.0154495 -41.8929902 14.3113442 152 -4.37008 1 1.0 0.0 0.0
63.7588425 -43.1734352 14.320961 153 -4.2086501 1 1.0 0.0 0.0
62.7852898 -40.9903336 14.0415678 154 -4.2172294 1 1.0 0.0 0.0
61.1341324 -39.133728 13.6769839 155 -4.2729702 1 1.0 0.0 0.0
64.8016892 -39.950203 13.7622595 156 -4.30477 1 1.0 0.0 0.0
66.8973542 -38.5374604 13.9397812 157 -4.3940902 1 1.0 0.0 0.0
68.2202149 -40.6600151 14.0647316 158 -4.3736601 1 1.0 0.0 0.0
63.4081802 -37.9409524 13.7905503 159 -4.3226295 1 1.0 0.0 0.0
61.2872696 -46.1016083 16.4635926 160 -4.37041 1 1.0 0.0 0.0
65.0491867 -47.0606117 16.9403878 161 -4.2137694 1 1.0 0.0 0.0
65.2932816 -45.524704 14.9868164 162 -4.2311001 1 1.0 0.0 0.0
67.0040817 -45.3700867 16.7267895 163 -4.3530102 1 1.0 0.0 0.0
58.2300682 -43.6027527 17.8459588 164 -4.0836401 1 1.0 0.0 0.0
58.6640816 -42.053524 15.9174748 165 -4.27879 1 1.0 0.0 0.0
59.7785683 -44.0153008 16.217701 166 -4.2550402 1 1.0 0.0 0.0
61.7275467 -44.5097199 14.4651404 167 -4.3656702 1 1.0 0.0 0.0
63.6068917 -44.6227875 16.2984123 168 -4.30651 1 1.0 0.0 0.0
60.4029961 -42.0058098 17.4285584 169 -4.31671 1 1.0 0.0 0.0
62.167656 -42.5058937 15.9370338 170 -4.3059402 1 1.0 0.0 0.0
61.7492295 -43.9921228 17.932438 171 -4.3715 1 1.0 0.0 0.0
65.6930847 -43.3147278 16.3478623 172 -4.2816501 1 1.0 0.0 0.0
67.1416397 -44.039711 14.6223107 173 -4.2343502 1 1.0 0.0 0.0
69.1859818 -44.4245186 17.0028992 174 -4.1536198 1 1.0 0.0 0.0
67.7081223 -42.0575943 16.2746086 175 -4.2690802 1 1.0 0.0 0.0
59.0481224 -40.0485916 17.4909096 176 -4.16396 1 1.0 0.0 0.0
59.3069573 -38.7370835 15.6244574 177 -4.2489801 1 1.0 0.0 0.0
60.8519058 -40.5123139 15.4549523 178 -4.2580094 1 1.0 0.0 0.0
63.0563278 -39.2010498 15.6470642 179 -4.2577901 1 1.0 0.0 0.0
61.0623093 -38.6086045 17.165596 180 -4.3319101 1 1.0 0.0 0.0
64.3629379 -41.1991959 15.8356447 181 -4.3741799 1 1.0 0.0 0.0
66.4379349 -39.9642564 15.7259245 182 -4.3480001 1 1.0 0.0 0.0
68.1409378 -40.1065407 17.5052529 183 -4.2795901 1 1.0 0.0 0.0
69.9969178 -40.6203156 16.2142563 184 -4.3329301 1 1.0 0.0 0.0
68.5717316 -38.4049225 15.8778048 185 -4.2746601 1 1.0 0.0 0.0
70.204422 -38.6746865 17.7080269 186 -4.4040294 1 1.0 0.0 0.0
59.545311 -36.5860405 16.8855648 187 -4.3188901 1 1.0 0.0 0.0
61.274395 -37.3180504 15.1551228 188 -4.3723602 1 1.0 0.0 0.0
63.0017929 -37.3456688 17.1622315 189 -4.3352199 1 1.0 0.0 0.0
61.4947891 -35.3778534 16.7692719 190 -4.3474002 1 1.0 0.0 0.0
63.4220658 -35.7817765 15.2428017 191 -4.3792801 1 1.0 0.0 0.0
66.5958176 -37.8429298 17.3528957 192 -4.2842398 1 1.0 0.0 0.0
65.1067734 -37.8868218 15.5327711 193 -4.3063698 1 1.0 0.0 0.0
64.9846268 -35.9251672 17.4539643 194 -4.2883301 1 1.0 0.0 0.0
67.0328751 -36.2839699 15.7463646 195 -4.28549 1 1.0 0.0 0.0
68.7971878 -36.4906082 17.5513382 196 -4.3751502 1 1.0 0.0 0.0
59.5929032 -45.5409775 18.1933117 197 -4.3615999 1 1.0 0.0 0.0
59.3000069 -45.1625862 21.6380825 198 -4.3832402 1 1.0 0.0 0.0
61.1607285 -45.6006546 20.1326141 199 -4.3376999 1 1.0 0.0 0.0
62.9589272 -46.0746079 18.2777863 200 -4.3881898 1 1.0 0.0 0.0
66.4152222 -47.0717087 18.6379662 201 -4.0941901 1 1.0 0.0 0.0
64.8386078 -46.2848282 20.1346951 202 -4.3761101 1 1.0 0.0 0.0
66.7570877 -44.743248 20.1283684 203 -4.1924901 1 1.0 0.0 0.0
65.292778 -44.810688 18.2585468 204 -4.3259802 1 1.0 0.0 0.0
68.5585022 -45.6078034 18.8764 205 -4.0864501 1 1.0 0.0 0.0
59.745369 -43.4799423 19.4396668 206 -4.2123599 1 1.0 0.0 0.0
58.1486015 -42.8055115 21.4409218 207 -4.3853002 1 1.0 0.0 0.0
58.6462899 -41.4568901 19.2727242 208 -4.2172399 1 1.0 0.0 0.0
60.3369217 -41.7557602 21.1339645 209 -4.2392306 1 1.0 0.0 0.0
63.3519478 -44.1990089 19.9631042 210 -4.3727894 1 1.0 0.0 0.0
61.4671669 -43.7634049 21.5785351 211 -4.2941098 1 1.0 0.0 0.0
67.1943131 -42.9895974 21.735302 212 -4.3603401 1 1.0 0.0 0.0
65.1432037 -44.247963 21.7217598 213 -4.2382398 1 1.0 0.0 0.0
67.1204605 -43.3947487 18.2573528 214 -4.1984701 1 1.0 0.0 0.0
69.4409256 -42.3110886 17.9200936 215 -4.3530302 1 1.0 0.0 0.0
69.0531693 -43.6584816 20.0741081 216 -4.4184098 1 1.0 0.0 0.0
69.4507523 -41.6759873 21.5330105 217 -4.3772602 1 1.0 0.0 0.0
71.1883164 -42.2875404 19.8702106 218 -4.3250198 1 1.0 0.0 0.0
58.9801866 -39.7811585 21.1014233 219 -4.3262501 1 1.0 0.0 0.0
59.1809273 -37.979046 18.7916088 220 -4.2858601 1 1.0 0.0 0.0
60.6426888 -40.2416802 19.1650086 221 -4.2670202 1 1.0 0.0 0.0
60.739769 -38.0579567 20.6760102 222 -4.1265998 1 1.0 0.0 0.0
69.8205567 -40.2193604 19.5360089 223 -4.40659 1 1.0 0.0 0.0
67.9290086 -39.7534142 21.3914757 224 -4.3966599 1 1.0 0.0 0.0
70.1541061 -38.1599312 21.0717735 225 -4.2964201 1 1.0 0.0 0.0
59.6046067 -36.2669487 20.545372 226 -4.1704602 1 1.0 0.0 0.0
61.3099709 -36.687397 18.712822 227 -4.2178302 1 1.0 0.0 0.0
62.7661515 -36.892189 20.6806565 228 -4.37393 1 1.0 0.0 0.0
63.072422 -35.409668 18.721716 229 -4.17767 1 1.0 0.0 0.0
61.6274376 -34.7050209 20.5060158 230 -4.2671294 1 1.0 0.0 0.0
64.9539642 -37.3308792 19.2162991 231 -4.18717 1 1.0 0.0 0.0
66.484848 -37.5259247 20.9801636 232 -4.2567907 1 1.0 0.0 0.0
64.896721 -35.5210037 20.5824776 233 -4.36305 1 1.0 0.0 0.0
66.965622 -36.1527748 18.9976616 234 -4.2166901 1 1.0 0.0 0.0
68.430954 -38.1605454 19.2922821 235 -4.2626801 1 1.0 0.0 0.0
68.7312927 -36.3290863 20.8036003 236 -4.2550602 1 1.0 0.0 0.0
63.0473518 -45.8356552 21.9267712 237 -4.30441 1 1.0 0.0 0.0
61.1149826 -45.2527084 23.5611992 238 -4.3053498 1 1.0 0.0 0.0
64.7788162 -46.0134468 23.7400799 239 -4.2951102 1 1.0 0.0 0.0
66.4228516 -46.6372147 22.0136471 240 -4.3055401 1 1.0 0.0 0.0
68.6393204 -44.8854066 22.1805191 241 -4.1462898 1 1.0 0.0 0.0
59.6044235 -43.2978401 23.2828484 242 -4.2371998 1 1.0 0.0 0.0
61.2538948 -43.2011681 25.3793221 243 -4.2456102 1 1.0 0.0 0.0
63.0038261 -43.882267 23.7743874 244 -4.18048 1 1.0 0.0 0.0
63.5183029 -42.0058098 25.0944786 245 -4.3811698 1 1.0 0.0 0.0
61.7931137 -41.743557 22.9484806 246 -4.2928801 1 1.0 0.0 0.0
66.8524704 -44.5518875 23.6366177 247 -4.3393102 1 1.0 0.0 0.0
65.3129349 -42.5665589 23.2807655 248 -4.3144302 1 1.0 0.0 0.0
66.9239578 -42.5595246 25.0952797 249 -4.3524695 1 1.0 0.0 0.0
64.8641892 -44.1485825 25.2069283 250 -4.3158999 1 1.0 0.0 0.0
68.74926 -43.0638161 23.5042153 251 -4.2513495 1 1.0 0.0 0.0
58.2964745 -41.0011826 23.1557369 252 -4.3398295 1 1.0 0.0 0.0
60.1907272 -41.1861267 24.7586632 253 -4.2244706 1 1.0 0.0 0.0
60.4253426 -39.6672402 22.8495808 254 -4.3042998 1 1.0 0.0 0.0
62.3263741 -39.7121125 24.6390114 255 -4.27987 1 1.0 0.0 0.0
62.4009209 -38.2028351 22.5863018 256 -4.12357 1 1.0 0.0 0.0
63.8672562 -40.3114624 22.8680936 257 -4.31073 1 1.0 0.0 0.0
66.1614761 -38.8682672 22.8430062 258 -4.3302202 1 1.0 0.0 0.0
65.5085984 -40.4525109 24.7732487 259 -4.3620401 1 1.0 0.0 0.0
64.2086105 -38.5013314 24.51614 260 -4.2974801 1 1.0 0.0 0.0
67.5522614 -40.9389192 23.5553475 261 -4.2102399 1 1.0 0.0 0.0
69.5324021 -39.672287 23.2249832 262 -4.3665095 1 1.0 0.0 0.0
67.8670044 -38.9156114 24.7450428 263 -4.27632 1 1.0 0.0 0.0
59.1754952 -37.6593361 22.5951977 264 -4.3320799 1 1.0 0.0 0.0
63.2911301 -34.7586556 22.3096352 265 -4.2178798 1 1.0 0.0 0.0
61.1480179 -36.46558 22.4593449 266 -4.11971 1 1.0 0.0 0.0
60.9482956 -37.8153153 24.4507389 267 -4.3168702 1 1.0 0.0 0.0
62.7905541 -36.3797646 24.2545433 268 -4.37145 1 1.0 0.0 0.0
66.2565079 -36.8035317 24.3935204 269 -4.3776102 1 1.0 0.0 0.0
64.5716324 -37.1054878 22.4556599 270 -4.3467999 1 1.0 0.0 0.0
66.6803513 -35.6823998 22.4356194 271 -4.2779598 1 1.0 0.0 0.0
68.1283951 -37.5572472 22.695858 272 -4.2941599 1 1.0 0.0 0.0
-63.1198578 33.1116562 -26.314148 273 -4.1052895 1 1.0 0.0 0.0
-68.8054428 34.5581742 -26.5614758 274 -4.2976999 1 1.0 0.0 0.0
-68.6637573 37.0450821 -27.3092442 275 -4.3034001 1 1.0 0.0 0.0
-70.6364212 36.2426605 -26.0036602 276 -4.26085 1 1.0 0.0 0.0
-66.5373764 35.4502259 -27.7202378 277 -4.1069698 1 1.0 0.0 0.0
-64.9848022 37.27034 -26.8412704 278 -4.25137 1 1.0 0.0 0.0
-62.9496078 35.1352081 -27.3187008 279 -4.1901798 1 1.0 0.0 0.0
-61.4612427 37.1014252 -26.6997338 280 -4.31881 1 1.0 0.0 0.0
-70.3427735 38.7319031 -27.0591869 281 -4.3659101 1 1.0 0.0 0.0
-68.5301514 40.3030777 -26.1447983 282 -4.2358799 1 1.0 0.0 0.0
-66.956131 38.6711197 -26.5066567 283 -4.3315501 1 1.0 0.0 0.0
-64.9477082 39.3766251 -27.8861408 284 -4.2705102 1 1.0 0.0 0.0
-63.0978432 37.4832802 -28.5244217 285 -4.3729401 1 1.0 0.0 0.0
-61.3885689 39.4264374 -27.5121765 286 -4.3598094 1 1.0 0.0 0.0
-63.2482681 38.7904625 -25.9676744 287 -4.3607202 1 1.0 0.0 0.0
-68.5374222 42.5299454 -27.2795105 288 -4.3620401 1 1.0 0.0 0.0
-66.5477066 40.995762 -27.3623791 289 -4.2644501 1 1.0 0.0 0.0
-64.956009 42.5833321 -26.5694943 290 -4.3526001 1 1.0 0.0 0.0
-63.257927 40.9719582 -27.2298203 291 -4.3530402 1 1.0 0.0 0.0
-61.5691529 42.6125603 -26.1239605 292 -4.2175698 1 1.0 0.0 0.0
-59.6188278 41.0276947 -26.2796841 293 -4.2554598 1 1.0 0.0 0.0
-66.7570877 44.2478409 -26.4033508 294 -4.2516799 1 1.0 0.0 0.0
-69.0621948 33.4872132 -23.0222969 295 -4.3494802 1 1.0 0.0 0.0
-67.2680054 31.7348042 -23.3765412 296 -4.3610201 1 1.0 0.0 0.0
-65.0628967 32.116272 -24.6504669 297 -4.26506 1 1.0 0.0 0.0
-65.5038452 33.5001679 -22.4821091 298 -4.2951198 1 1.0 0.0 0.0
-63.2585983 31.7016297 -23.0547543 299 -4.2304402 1 1.0 0.0 0.0
-61.1268463 32.282608 -24.1790466 300 -4.3663602 1 1.0 0.0 0.0
-59.784504 31.7419529 -22.2584992 301 -4.2727199 1 1.0 0.0 0.0
-71.0941162 35.1305199 -22.5168934 302 -4.3031998 1 1.0 0.0 0.0
-70.7474213 33.9085236 -24.894352 303 -4.3773894 1 1.0 0.0 0.0
-68.9686662 35.533577 -24.2081413 304 -4.34199 1 1.0 0.0 0.0
-67.0123749 33.789177 -24.4818402 305 -4.3224702 1 1.0 0.0 0.0
-65.0408859 34.5818482 -25.8184452 306 -4.3082199 1 1.0 0.0 0.0
-66.9305574 36.2431603 -25.7571278 307 -4.1303501 1 1.0 0.0 0.0
-61.5046082 34.4837075 -25.1981888 308 -4.3139601 1 1.0 0.0 0.0
-63.4900017 33.7179032 -24.1848984 309 -4.0839701 1 1.0 0.0 0.0
-63.2951889 36.3019638 -25.1863289 310 -4.3695502 1 1.0 0.0 0.0
-58.0389824 36.9199296 -25.9308034 311 -4.3349199 1 1.0 0.0 0.0
-59.5902024 34.1438942 -23.2570419 312 -4.1407199 1 1.0 0.0 0.0
-58.1279221 34.6614952 -24.9421196 313 -4.2554202 1 1.0 0.0 0.0
-58.1455345 35.9895288 -22.7670269 314 -4.1388402 1 1.0 0.0 0.0
-60.0220032 36.3433991 -24.5304089 315 -4.37959 1 1.0 0.0 0.0
-56.5643387 36.3029556 -24.2410793 316 -4.10324 1 1.0 0.0 0.0
-72.2351303 39.0311432 -23.1824265 317 -4.31461 1 1.0 0.0 0.0
-70.6783753 37.3183022 -23.7414475 318 -4.25807 1 1.0 0.0 0.0
-70.5010071 39.7317124 -24.7709275 319 -4.3885102 1 1.0 0.0 0.0
-68.7905655 37.8016281 -24.9930116 320 -4.29215 1 1.0 0.0 0.0
-65.1779251 40.2958031 -25.6562233 321 -4.3635602 1 1.0 0.0 0.0
-61.5843964 40.3982659 -25.2009926 322 -4.25774 1 1.0 0.0 0.0
-59.7302895 38.6605149 -25.7562485 323 -4.3891301 1 1.0 0.0 0.0
-58.1174126 38.0218353 -23.8014755 324 -4.2809501 1 1.0 0.0 0.0
-56.3869743 39.6539154 -22.9767704 325 -4.35253 1 1.0 0.0 0.0
-58.0040894 40.3006058 -24.7811871 326 -4.35426 1 1.0 0.0 0.0
-72.356369 41.2957382 -24.1810474 327 -4.3299894 1 1.0 0.0 0.0
-70.9058304 43.029541 -23.5195999 328 -4.24545 1 1.0 0.0 0.0
-70.7150116 40.6055184 -22.5309143 329 -4.2779298 1 1.0 0.0 0.0
-70.6805725 41.9141998 -25.8278981 330 -4.3206201 1 1.0 0.0 0.0
-68.744957 41.5339508 -23.7942658 331 -4.2148399 1 1.0 0.0 0.0
-68.8359146 43.6205063 -24.7451992 332 -4.2996502 1 1.0 0.0 0.0
-66.925644 41.9318352 -25.0842228 333 -4.2954602 1 1.0 0.0 0.0
-65.3768005 43.6913986 -24.4279022 334 -4.3679094 1 1.0 0.0 0.0
-63.3529587 41.9318352 -24.7369461 335 -4.3407402 1 1.0 0.0 0.0
-61.4968186 43.8916398 -23.9722692 336 -4.2603302 1 1.0 0.0 0.0
-57.771164 42.7009583 -25.7914315 337 -4.3302798 1 1.0 0.0 0.0
-59.7257233 42.3091202 -24.1535606 338 -4.3290601 1 1.0 0.0 0.0
-57.9329414 43.715931 -23.5271378 339 -4.24405 1 1.0 0.0 0.0
-58.311718 41.214119 -22.4989357 340 -4.3826599 1 1.0 0.0 0.0
-56.5138626 41.9759674 -23.9794808 341 -4.2004199 1 1.0 0.0 0.0
-70.6261597 45.2506065 -24.3806954 342 -4.3547602 1 1.0 0.0 0.0
-70.6945191 46.340683 -21.9440042 343 -4.32376 1 1.0 0.0 0.0
-69.0719681 47.0699844 -23.4654236 344 -4.29181 1 1.0 0.0 0.0
-68.7776795 44.7178498 -22.5009403 345 -4.3501601 1 1.0 0.0 0.0
-67.0001831 45.4826546 -23.8886758 346 -4.0996494 1 1.0 0.0 0.0
-64.9497376 45.712986 -25.5509911 347 -4.30725 1 1.0 0.0 0.0
-65.1266022 46.7247544 -23.0853672 348 -4.2751799 1 1.0 0.0 0.0
-63.4688263 45.2639313 -23.6669922 349 -4.2339301 1 1.0 0.0 0.0
-63.1218872 44.1697922 -25.7234688 350 -4.2475 1 1.0 0.0 0.0
-61.4197426 46.0000114 -25.130146 351 -4.3828602 1 1.0 0.0 0.0
-61.9475976 46.9744264 -22.8919754 352 -4.44381 1 1.0 0.0 0.0
-59.8876724 45.4355583 -23.1207142 353 -4.4202094 1 1.0 0.0 0.0
-59.3996239 44.4876518 -25.3788357 354 -4.3123498 1 1.0 0.0 0.0
-58.2729263 47.2113991 -22.2321301 355 -4.3168602 1 1.0 0.0 0.0
-67.3334046 48.6110802 -22.5950318 356 -4.3371 1 1.0 0.0 0.0
-63.6978607 48.7863999 -22.3675785 357 -4.3355999 1 1.0 0.0 0.0
-63.6134987 47.4933815 -24.7609101 358 -4.3269 1 1.0 0.0 0.0
-67.5451508 30.7683945 -19.99893 359 -4.2511401 1 1.0 0.0 0.0
-71.0056229 32.8395386 -21.4110317 360 -4.39427 1 1.0 0.0 0.0
-69.1095276 31.2651577 -21.8278713 361 -4.3323798 1 1.0 0.0 0.0
-69.3549347 32.2549896 -19.6228028 362 -4.3603101 1 1.0 0.0 0.0
-67.5610733 32.8267212 -21.1730747 363 -4.2918301 1 1.0 0.0 0.0
-63.9551812 30.7279511 -19.6857205 364 -4.3726101 1 1.0 0.0 0.0
-65.6780014 31.0681305 -21.5590592 365 -4.2122302 1 1.0 0.0 0.0
-65.733902 32.5380783 -19.1427288 366 -4.3024202 1 1.0 0.0 0.0
-63.8672638 32.837925 -20.8100128 367 -4.3043599 1 1.0 0.0 0.0
-62.0490761 31.4492417 -20.9320774 368 -4.2168498 1 1.0 0.0 0.0
-60.5840836 30.9395352 -19.2752075 369 -4.3382201 1 1.0 0.0 0.0
-60.498188 33.2857552 -20.2244625 370 -4.2494106 1 1.0 0.0 0.0
-61.9845238 33.6455307 -22.2894344 371 -4.2608199 1 1.0 0.0 0.0
-58.3000374 30.9974824 -20.54529 372 -4.3192907 1 1.0 0.0 0.0
-56.6436234 32.7293167 -19.7641049 373 -4.29178 1 1.0 0.0 0.0
-72.5633316 36.7976265 -21.9181156 374 -4.2813001 1 1.0 0.0 0.0
-71.2089691 33.7446556 -19.1024933 375 -4.21664 1 1.0 0.0 0.0
-72.776619 34.5801239 -20.9275074 376 -4.4257598 1 1.0 0.0 0.0
-73.014473 35.8296051 -18.5705605 377 -4.3687701 1 1.0 0.0 0.0
-71.2260819 36.2821121 -20.0711441 378 -4.2951894 1 1.0 0.0 0.0
-69.3371887 34.6761666 -20.6133309 379 -4.4006 1 1.0 0.0 0.0
-58.4047241 33.4640351 -21.5630684 380 -4.2034502 1 1.0 0.0 0.0
-58.49366 34.557312 -19.2226315 381 -4.3305402 1 1.0 0.0 0.0
-56.578743 35.1249657 -20.652525 382 -4.3228502 1 1.0 0.0 0.0
-56.9548112 36.2339058 -18.3544884 383 -4.3400898 1 1.0 0.0 0.0
-55.2509689 34.4834557 -18.9096604 384 -4.2537999 1 1.0 0.0 0.0
-54.6101189 36.9942818 -20.0059032 385 -4.2663999 1 1.0 0.0 0.0
-74.7667923 39.6335716 -19.5428982 386 -4.2411294 1 1.0 0.0 0.0
-73.0044708 37.91568 -19.8981858 387 -4.2182498 1 1.0 0.0 0.0
-70.893776 38.6372147 -21.1326809 388 -4.3848 1 1.0 0.0 0.0
-72.6902085 40.1515503 -20.9433766 389 -4.3235998 1 1.0 0.0 0.0
-56.4340744 37.3817978 -21.922844 390 -4.36971 1 1.0 0.0 0.0
-56.7889672 38.3192177 -19.6502953 391 -4.2861095 1 1.0 0.0 0.0
-54.9629822 39.146431 -21.0252838 392 -4.3098102 1 1.0 0.0 0.0
-55.1027374 40.4119492 -18.8093987 393 -4.0616798 1 1.0 0.0 0.0
-72.6401367 42.5294457 -21.8939916 394 -4.20783 1 1.0 0.0 0.0
-71.1374817 41.7706833 -20.2619705 395 -4.2350602 1 1.0 0.0 0.0
-72.8435212 43.5478783 -19.9075642 396 -4.2279301 1 1.0 0.0 0.0
-70.9222032 43.9995194 -21.0946903 397 -4.3342095 1 1.0 0.0 0.0
-56.6542931 40.664093 -20.6969261 398 -4.2657399 1 1.0 0.0 0.0
-56.6280365 43.0296631 -21.3429833 399 -4.3415599 1 1.0 0.0 0.0
-54.8864136 41.5864716 -21.9704514 400 -4.33111 1 1.0 0.0 0.0
-55.0627594 42.3372231 -19.6374722 401 -3.84756 1 1.0 0.0 0.0
-71.53965 45.1585159 -18.8267079 402 -4.2976799 1 1.0 0.0 0.0
-71.2581482 47.4933815 -19.6025276 403 -4.27423 1 1.0 0.0 0.0
-69.3203125 45.6438103 -20.1750107 404 -4.24821 1 1.0 0.0 0.0
-67.3913269 47.5877075 -19.3449364 405 -4.3867402 1 1.0 0.0 0.0
-67.2952805 46.4631119 -21.6348 406 -4.39958 1 1.0 0.0 0.0
-63.7320824 46.6020775 -21.1142483 407 -4.2163201 1 1.0 0.0 0.0
-64.024971 47.5796967 -18.844019 408 -4.3185301 1 1.0 0.0 0.0
-60.3082962 46.4493065 -20.9066696 409 -4.3520398 1 1.0 0.0 0.0
-60.7543297 47.5857353 -18.5009957 410 -4.3422895 1 1.0 0.0 0.0
-56.8509712 44.3622551 -19.1180458 411 -4.2856598 1 1.0 0.0 0.0
-58.4089584 44.711319 -20.9875356 412 -4.3541999 1 1.0 0.0 0.0
-58.7865601 45.9558716 -18.6955128 413 -4.1417999 1 1.0 0.0 0.0
-56.6958008 46.6693955 -20.3388329 414 -4.3920698 1 1.0 0.0 0.0
-69.1463928 47.959568 -21.1624966 415 -4.3361306 1 1.0 0.0 0.0
-65.6010895 48.0033417 -20.9313546 416 -4.3799501 1 1.0 0.0 0.0
-64.095108 49.8495828 -20.1164246 417 -4.4109001 1 1.0 0.0 0.0
-65.7762528 49.3121414 -18.65135 418 -4.3081999 1 1.0 0.0 0.0
-62.2623406 48.2611542 -20.6054802 419 -4.2943702 1 1.0 0.0 0.0
-58.704052 47.8740082 -19.9411488 420 -4.2279201 1 1.0 0.0 0.0
-65.7977677 30.0235577 -18.1870594 421 -4.33182 1 1.0 0.0 0.0
-64.3583603 29.3197785 -16.1414051 422 -4.3992601 1 1.0 0.0 0.0
-62.6114807 30.2160263 -17.7235756 423 -4.28548 1 1.0 0.0 0.0
-71.3482208 31.5830136 -17.900938 424 -4.3522802 1 1.0 0.0 0.0
-71.5304032 32.6675339 -15.7696047 425 -4.2836094 1 1.0 0.0 0.0
-67.5146561 31.582161 -17.7917786 426 -4.3331294 1 1.0 0.0 0.0
-69.578888 30.9474182 -16.2673149 427 -4.33428 1 1.0 0.0 0.0
-68.0866013 32.6194535 -15.4076624 428 -4.3080101 1 1.0 0.0 0.0
-69.3519211 33.3327217 -17.3286114 429 -4.3088498 1 1.0 0.0 0.0
-66.2044907 30.9588928 -15.764637 430 -4.3548198 1 1.0 0.0 0.0
-64.3038101 31.6404743 -17.4635811 431 -4.1814399 1 1.0 0.0 0.0
-62.3580666 32.44487 -18.5397034 432 -4.29281 1 1.0 0.0 0.0
-62.7842827 30.9662858 -15.4263373 433 -4.30196 1 1.0 0.0 0.0
-60.737896 31.6426907 -16.8091831 434 -4.38234 1 1.0 0.0 0.0
-58.7093125 32.3748322 -18.5108509 435 -4.2585902 1 1.0 0.0 0.0
-59.1265488 33.2777405 -15.8879806 436 -4.3496199 1 1.0 0.0 0.0
-71.3721619 34.949154 -16.8404408 437 -4.3322601 1 1.0 0.0 0.0
-73.1680908 36.5771637 -16.2189865 438 -4.33953 1 1.0 0.0 0.0
-69.868309 34.4539871 -15.0973349 439 -4.3987098 1 1.0 0.0 0.0
-57.540947 34.9990884 -15.195116 440 -4.3064695 1 1.0 0.0 0.0
-57.0862656 33.6844902 -17.5127907 441 -4.2505698 1 1.0 0.0 0.0
-55.1994743 35.859581 -16.3968296 442 -4.0699701 1 1.0 0.0 0.0
-71.4657517 37.4849968 -17.9599266 443 -4.3592701 1 1.0 0.0 0.0
-73.4663086 38.823021 -17.516716 444 -4.2845202 1 1.0 0.0 0.0
-71.795723 38.4983826 -15.7232828 445 -4.35289 1 1.0 0.0 0.0
-73.4964447 40.2663345 -15.3748837 446 -4.1314101 1 1.0 0.0 0.0
-71.400383 40.5293274 -16.750679 447 -4.3000598 1 1.0 0.0 0.0
-57.0859261 37.4129944 -16.0518818 448 -4.3700295 1 1.0 0.0 0.0
-57.2998848 39.6298752 -17.2695446 449 -4.3320999 1 1.0 0.0 0.0
-55.3319359 37.951931 -17.7761517 450 -4.3613601 1 1.0 0.0 0.0
-55.3531189 39.116703 -15.3162975 451 -4.16188 1 1.0 0.0 0.0
-73.0817947 41.2403793 -18.6370831 452 -4.3839698 1 1.0 0.0 0.0
-73.2352066 42.1728783 -16.5140057 453 -4.1317401 1 1.0 0.0 0.0
-71.2190018 42.9553224 -17.9527112 454 -4.2996502 1 1.0 0.0 0.0
-71.6199265 44.005928 -15.514019 455 -4.3389506 1 1.0 0.0 0.0
-56.7886276 42.0551186 -18.4153156 456 -4.16781 1 1.0 0.0 0.0
-57.0352783 42.7385636 -15.95747 457 -4.3247399 1 1.0 0.0 0.0
-57.2956467 40.5965271 -14.9344798 458 -4.3436999 1 1.0 0.0 0.0
-55.3548088 41.0168381 -16.4678402 459 -4.2002802 1 1.0 0.0 0.0
-55.2299652 43.5812874 -17.3556233 460 -4.3718 1 1.0 0.0 0.0
-73.4080734 44.6717377 -17.4330426 461 -4.2572298 1 1.0 0.0 0.0
-71.7111359 46.2318077 -16.752842 462 -4.3345199 1 1.0 0.0 0.0
-69.60672 44.7010803 -17.1540546 463 -4.2581906 1 1.0 0.0 0.0
-68.0716934 46.4271088 -16.3249416 464 -4.3877902 1 1.0 0.0 0.0
-69.710701 46.7516327 -18.1133289 465 -4.2344399 1 1.0 0.0 0.0
-64.4166336 46.1971664 -15.4765902 466 -4.3807998 1 1.0 0.0 0.0
-65.967682 46.9836808 -17.5357113 467 -4.3579798 1 1.0 0.0 0.0
-62.7348099 47.0141373 -17.0867348 468 -4.2210598 1 1.0 0.0 0.0
-60.9059448 46.2641144 -15.2145119 469 -4.40097 1 1.0 0.0 0.0
-58.9617234 47.0191879 -16.7547646 470 -4.2932501 1 1.0 0.0 0.0
-59.2156487 44.5770417 -15.754138 471 -4.3606 1 1.0 0.0 0.0
-57.2153549 45.2194214 -16.8832418 472 -4.3053298 1 1.0 0.0 0.0
-55.4198609 44.7966347 -15.1550436 473 -4.37289 1 1.0 0.0 0.0
-67.8351364 48.6800003 -17.1360226 474 -4.14393 1 1.0 0.0 0.0
-69.9971772 47.9167976 -15.6638108 475 -4.2013798 1 1.0 0.0 0.0