ITEM: TIMESTEP
0
ITEM: NUMBER OF ATOMS
222
ITEM: BOX BOUNDS xy xz yz pp pp pp
0.0 10.0 1.2246499e-15
0.0 10.0 1.2246499e-15
0.0 10.0 1.2246499e-15
ITEM: ATOMS x y z id
4.5482354 1.4245558 3.1135531 5
5.1155987 1.8227549 3.2532895 6
5.6829624 2.220954 3.3930259 7
4.7788115 3.8399034 1.7009952 26
5.4859114 3.8399034 1.7009952 27
5.4911447 5.0463805 9.843647 45
4.9350176 5.4830876 9.843647 46
4.3788905 5.9197946 9.843647 47
4.2591944 9.1000242 4.2010422 136
4.5412326 8.6415243 4.6595421 137
4.8232708 8.1830244 5.118042 138
5.105309 7.724524 5.5765429 139
5.3873472 7.2660236 6.0350418 140
5.4579945 7.8726592 8.0198946 181
5.101881 1.221984 7.8742968 221
5.3666134 1.6643515 8.3582573 222
5.6313463 2.1067188 8.8422184 223
4.295341 0.297629 3.5534401 246
4.9705874 0.0877887 3.5534401 247
5.6458335 9.8779488 3.5534401 248
5.632699 2.9446812 3.7076357 281
4.3494949 4.2705999 2.3355827 310
4.6261244 4.0791326 2.9575206 311
4.9027538 3.8876654 3.5794592 312
5.1793833 3.6961978 4.2013969 313
5.4560128 3.5047305 4.8233347 314
5.7326422 3.313263 5.4452725 315
4.616045 6.4727435 2.4157162 324
5.2998319 6.4960566 2.237159 325
4.2889142 3.4104059 7.2014408 345
4.8750486 3.0148849 7.2014408 346
5.4611831 2.619364 7.2014408 347
5.2834044 0.8652148 0.1393856 426
4.6545034 0.541991 0.1393856 427
4.4479065 2.6021109 8.9357996 447
4.8982506 3.093957 8.7007094 448
5.3485947 3.585804 8.4656182 449
4.2907338 2.6329413 3.6238528 517
4.4472962 3.0481358 4.1743908 518
4.6038585 3.4633312 4.7249279 519
4.7604208 3.8785258 5.275466 520
4.9290706 6.0940385 8.1752853 522
5.6361704 6.0940385 8.1752853 523
4.9261308 5.872355 8.1525784 584
5.632988 5.8908888 8.1525784 585
4.3540907 8.8661338 0.8238259 668
4.8819652 9.3011246 1.0030518 669
5.4098392 9.7361164 1.1822767 670
4.7593498 3.9110828 2.6406348 724
5.4664498 3.9110828 2.6406348 725
4.629642 4.1050897 8.1883678 743
5.3367424 4.1050897 8.1883678 744
5.6235128 5.3190518 2.0547051 776
5.4407435 5.8020554 1.5717012 777
5.2579742 6.285059 1.0886972 778
5.0752049 6.7680645 0.6056932 779
4.8924356 7.2510681 0.1226891 780
4.8834096 8.6127119 3.0463278 803
5.5905094 8.6127119 3.0463278 804
5.210599 4.965756 9.0836973 861
5.2123699 9.5148878 7.462359 886
4.5191984 9.3752327 7.462359 887
4.3378363 6.3675933 5.467238 924
4.5472207 5.9110542 5.9649534 925
4.7566057 5.4545155 6.4626689 926
4.9659902 4.9979764 6.9603844 927
5.1753745 4.5414372 7.4580999 928
5.3847594 4.084898 7.9558148 929
5.5941439 3.6283593 8.4535303 930
4.3119459 4.9621 3.6476035 941
4.4288402 5.3335605 4.2378097 942
4.545734 5.7050214 4.8280158 943
4.6626277 6.0764818 5.418222 944
4.7795215 6.4479423 6.0084281 945
4.8964158 6.8194032 6.5986338 946
5.0133095 7.1908636 7.1888399 947
5.1302033 7.5623245 7.7790461 948
5.2470975 7.933785 8.3692522 949
5.3639913 8.3052454 8.9594584 950
5.4808851 8.6767063 9.5496645 951
5.5977793 9.0481672 0.1398706 952
5.7146731 9.4196272 0.7300768 953
5.7148996 4.2708311 6.9100718 1024
5.0081439 4.2708311 6.9321452 1025
4.3013888 4.2708311 6.9542184 1026
4.4648929 3.8517838 6.6556788 1106
4.7243886 4.2993879 7.1376567 1107
4.9838844 4.7469921 7.6196347 1108
5.2433801 5.1945968 8.101613 1109
5.5028758 5.642201 8.5835905 1110
4.855805 7.3889408 0.7412485 1141
5.375207 7.8687454 0.7412485 1142
5.6954322 2.4100444 2.3412695 1201
5.5929752 4.6945262 8.9998952 1221
4.5553227 7.3786297 4.5271182 1243
5.2542191 7.4585629 4.4553886 1244
4.4353256 3.3822937 5.4774566 1262
5.0776367 3.2081356 5.7164035 1263
5.7199483 3.0339775 5.9553504 1264
4.8728486 5.3325281 9.1707802 1302
5.5799485 5.3325281 9.1707802 1303
5.3488808 2.5847566 6.7007308 1321
4.750412 8.340972 3.8516684 1347
5.307065 8.6492968 3.5433438 1348
4.906406 9.549058 5.3857823 1367
5.6135059 9.549058 5.3857823 1368
4.3143802 1.4031528 3.9064326 1427
4.7576738 0.9195338 4.170239 1428
5.2009673 0.4359148 4.4340453 1429
5.6442609 9.9522954 4.6978517 1430
4.5234618 5.3581982 3.9504448 1446
5.2301498 5.3752599 3.9333828 1447
4.805583 7.6363983 1.7976258 1501
5.5126829 7.6363983 1.7976258 1502
4.4086585 0.8857514 5.7126632 1547
5.1157584 0.8857514 5.7126632 1548
4.3438568 4.6164947 1.440597 1564
4.8888416 4.7786103 1.0202389 1565
5.433826 4.9407254 0.599881 1566
4.6323934 2.6014967 6.6285148 1603
5.3171811 2.4252694 6.6285148 1604
5.5214157 3.9192818 6.2180419 1621
5.0656948 4.3015833 5.8357406 1622
4.6099744 4.6838846 5.4534388 1623
4.4380718 1.2526947 6.0054007 1647
5.1451206 1.2587266 5.9994202 1648
4.5264745 6.7452946 9.2863569 1672
4.8156324 7.3905678 9.2863569 1673
5.1047902 8.0358429 9.2863569 1674
5.3939481 8.6811161 9.2863569 1675
5.6831064 9.3263893 9.2863569 1676
4.6079617 6.9398036 6.0805078 1706
5.3150616 6.9398036 6.0805078 1707
4.6018973 8.0034065 9.9872104 1721
4.4429217 8.6596861 0.1970062 1722
4.2839465 9.3159657 0.4068012 1723
4.7238879 3.4205358 1.9218374 1742
5.2603378 3.0947964 2.2475767 1743
5.5261483 7.5196672 2.4415369 1784
4.9548298 7.5196672 2.0249007 1785
4.3835116 7.5196672 1.6082645 1786
5.3404136 9.9887466 4.675467 1810
4.8543702 9.9887466 5.1890354 1811
4.3683267 9.9887466 5.7026034 1812
4.8972994 9.0003214 8.1707077 1847
5.6009712 8.9308644 8.1741352 1848
4.2739134 3.958514 5.4165368 1861
4.9810134 3.958514 5.4165368 1862
5.6881132 3.958514 5.4165368 1863
4.3906226 5.6612263 8.8813716 1905
4.7938605 6.1562591 9.1852331 1906
5.1970983 6.6512919 9.4890957 1907
5.6003361 7.1463246 9.7929573 1908
5.0172348 7.1288815 6.8362584 1961
5.723929 7.1049337 6.8362584 1962
4.8603154 1.0780612 8.1707792 2004
5.5669847 1.1027308 8.1712103 2005
4.360579 8.3918762 5.2255573 2026
5.0676794 8.3918762 5.2255573 2027
4.4044323 0.848199 3.0601857 2047
5.0191393 1.1976633 3.0601857 2048
5.6338463 1.5471287 3.0601857 2049
4.606483 9.840335 5.0459299 2064
5.2400708 0.0623226 4.8239427 2065
4.9117508 8.8298817 3.6808157 2125
5.6063442 8.9295492 3.5936547 2126
5.3580747 9.909422 6.0469861 2161
5.2606602 3.0016723 4.1647005 2201
4.6245795 3.0016723 4.4735561 2202
4.3051043 1.2245724 0.9373582 2224
4.999034 1.2245724 1.0731968 2225
5.6929636 1.2245724 1.2090355 2226
4.3087902 1.7197676 5.6075926 2288
4.922802 2.0704527 5.6075926 2289
5.5368138 2.4211378 5.6075926 2290
4.2918162 5.6695485 3.2353153 2324
4.995267 5.6731982 3.3069728 2325
5.6987171 5.676848 3.3786299 2326
4.5545454 7.2493281 9.9481412 2365
5.2616453 7.2493281 9.9481412 2366
4.7914586 3.5772546 8.3913937 2384
5.4985585 3.5772546 8.3913937 2385
5.1356373 0.151572 5.4184771 2401
4.4977908 0.3673755 5.2026739 2402
5.4238119 7.7955985 2.7133951 2461
4.6569963 0.773691 3.689915 2487
5.3640962 0.773691 3.689915 2488
4.4304638 9.3949518 5.3276501 2514
4.6479988 8.9334384 5.817215 2515
4.8655338 8.4719239 6.3067799 2516
5.0830693 8.0104103 6.7963448 2517
5.3006044 7.5488963 7.2859097 2518
5.5181394 7.0873823 7.7754746 2519
5.7356749 6.6258683 8.2650395 2520
5.4183416 4.1447764 3.8681778 2547
5.0602107 3.5350776 3.8681778 2548
4.7020803 2.9253786 3.8681778 2549
4.3439493 2.3156796 3.8681778 2550
5.7007141 8.6217442 6.5902009 2581
5.4698806 9.0322027 7.1176758 2582
5.2390466 9.4426623 7.6451507 2583
5.008213 9.8531208 8.1726255 2584
4.7773795 0.2635794 8.7001 2585
4.5465455 0.6740389 9.2275753 2586
4.315712 1.0844975 9.7550497 2587
5.0744038 5.5043221 0.0815401 2621
5.2158461 6.1971312 0.0815401 2622
5.3572884 6.8899404 0.0815401 2623
5.4987302 7.5827494 0.0815401 2624
5.6401725 8.2755585 0.0815401 2625
4.7700787 5.7553292 8.9430266 2641
4.5815888 6.0250497 9.5688963 2642
4.3930988 6.2947698 0.1947661 2643
4.8412294 0.7435089 3.7628863 2702
5.5482426 0.7356687 3.7707265 2703
4.946581 4.8107677 0.8692624 2724
5.6536808 4.8107677 0.8692624 2725
4.5073915 1.3399905 1.5785297 2761
4.5305825 2.0640142 9.5006447 2905
5.1681976 2.3616877 9.5701294 2906
5.1693878 9.156332 1.4930938 2985
4.4696627 9.2581892 1.4930938 2986
ITEM: TIMESTEP
1
ITEM: NUMBER OF ATOMS
222
ITEM: BOX BOUNDS xy xz yz pp pp pp
0.0 10.0 1.2246499e-15
0.0 10.0 1.2246499e-15
0.0 10.0 1.2246499e-15
ITEM: ATOMS x y z id
5.0482354 1.4245558 3.1135531 5
5.6155987 1.8227549 3.2532895 6
6.1829624 2.220954 3.3930259 7
5.2788115 3.8399034 1.7009952 26
5.9859114 3.8399034 1.7009952 27
5.9911448 5.0463805 9.843647 45
5.4350176 5.4830876 9.843647 46
4.8788906 5.9197946 9.843647 47
4.7591944 9.1000242 4.2010422 136
5.0412326 8.6415243 4.6595421 137
5.3232708 8.1830244 5.118042 138
5.605309 7.724524 5.5765429 139
5.8873472 7.2660236 6.0350418 140
5.9579946 7.8726592 8.0198946 181
5.6018811 1.221984 7.8742968 221
5.8666134 1.6643515 8.3582573 222
6.1313462 2.1067188 8.8422184 223
4.795341 0.297629 3.5534401 246
5.4705873 0.0877887 3.5534401 247
6.1458335 9.8779488 3.5534401 248
6.132699 2.9446812 3.7076357 281
4.849495 4.2705999 2.3355827 310
5.1261244 4.0791326 2.9575206 311
5.4027538 3.8876654 3.5794592 312
5.6793833 3.6961978 4.2013969 313
5.9560128 3.5047305 4.8233347 314
6.2326422 3.313263 5.4452725 315
5.116045 6.4727435 2.4157162 324
5.7998319 6.4960566 2.237159 325
4.7889142 3.4104059 7.2014408 345
5.3750486 3.0148849 7.2014408 346
5.9611832 2.619364 7.2014408 347
5.7834044 0.8652148 0.1393856 426
5.1545034 0.541991 0.1393856 427
4.9479066 2.6021109 8.9357996 447
5.3982506 3.093957 8.7007094 448
5.8485948 3.585804 8.4656182 449
4.7907338 2.6329413 3.6238528 517
4.9472962 3.0481358 4.1743908 518
5.1038585 3.4633312 4.7249279 519
5.2604208 3.8785258 5.275466 520
5.4290705 6.0940385 8.1752853 522
6.1361704 6.0940385 8.1752853 523
5.4261308 5.872355 8.1525784 584
6.132988 5.8908888 8.1525784 585
4.8540908 8.8661338 0.8238259 668
5.3819652 9.3011246 1.0030518 669
5.9098392 9.7361164 1.1822767 670
5.2593498 3.9110828 2.6406348 724
5.9664498 3.9110828 2.6406348 725
5.129642 4.1050897 8.1883678 743
5.8367424 4.1050897 8.1883678 744
6.1235128 5.3190518 2.0547051 776
5.9407434 5.8020554 1.5717012 777
5.7579742 6.285059 1.0886972 778
5.5752049 6.7680645 0.6056932 779
5.3924356 7.2510681 0.1226891 780
5.3834095 8.6127119 3.0463278 803
6.0905094 8.6127119 3.0463278 804
5.710599 4.965756 9.0836973 861
5.7123699 9.5148878 7.462359 886
5.0191984 9.3752327 7.462359 887
4.8378363 6.3675933 5.467238 924
5.0472207 5.9110542 5.9649534 925
5.2566056 5.4545155 6.4626689 926
5.4659901 4.9979764 6.9603844 927
5.6753745 4.5414372 7.4580999 928
5.8847594 4.084898 7.9558148 929
6.0941439 3.6283593 8.4535303 930
4.8119459 4.9621 3.6476035 941
4.9288402 5.3335605 4.2378097 942
5.0457339 5.7050214 4.8280158 943
5.1626277 6.0764818 5.418222 944
5.2795215 6.4479423 6.0084281 945
5.3964157 6.8194032 6.5986338 946
5.5133095 7.1908636 7.1888399 947
5.6302033 7.5623245 7.7790461 948
5.7470975 7.933785 8.3692522 949
5.8639914 8.3052454 8.9594584 950
5.980885 8.6767063 9.5496645 951
6.0977793 9.0481672 0.1398706 952
6.2146731 9.4196272 0.7300768 953
6.2148996 4.2708311 6.9100718 1024
5.5081439 4.2708311 6.9321452 1025
4.8013888 4.2708311 6.9542184 1026
4.964893 3.8517838 6.6556788 1106
5.2243886 4.2993879 7.1376567 1107
5.4838844 4.7469921 7.6196347 1108
5.7433801 5.1945968 8.101613 1109
6.0028758 5.642201 8.5835905 1110
5.3558049 7.3889408 0.7412485 1141
5.875207 7.8687454 0.7412485 1142
6.1954322 2.4100444 2.3412695 1201
6.0929751 4.6945262 8.9998952 1221
5.0553227 7.3786297 4.5271182 1243
5.7542191 7.4585629 4.4553886 1244
4.9353256 3.3822937 5.4774566 1262
5.5776367 3.2081356 5.7164035 1263
6.2199483 3.0339775 5.9553504 1264
5.3728485 5.3325281 9.1707802 1302
6.0799484 5.3325281 9.1707802 1303
5.8488808 2.5847566 6.7007308 1321
5.250412 8.340972 3.8516684 1347
5.807065 8.6492968 3.5433438 1348
5.4064059 9.549058 5.3857823 1367
6.1135058 9.549058 5.3857823 1368
4.8143802 1.4031528 3.9064326 1427
5.2576738 0.9195338 4.170239 1428
5.7009673 0.4359148 4.4340453 1429
6.1442609 9.9522954 4.6978517 1430
5.0234618 5.3581982 3.9504448 1446
5.7301498 5.3752599 3.9333828 1447
5.305583 7.6363983 1.7976258 1501
6.0126829 7.6363983 1.7976258 1502
4.9086586 0.8857514 5.7126632 1547
5.6157584 0.8857514 5.7126632 1548
4.8438568 4.6164947 1.440597 1564
5.3888416 4.7786103 1.0202389 1565
5.933826 4.9407254 0.599881 1566
5.1323934 2.6014967 6.6285148 1603
5.8171811 2.4252694 6.6285148 1604
6.0214157 3.9192818 6.2180419 1621
5.5656948 4.3015833 5.8357406 1622
5.1099744 4.6838846 5.4534388 1623
4.9380718 1.2526947 6.0054007 1647
5.6451206 1.2587266 5.9994202 1648
5.0264745 6.7452946 9.2863569 1672
5.3156324 7.3905678 9.2863569 1673
5.6047902 8.0358429 9.2863569 1674
5.8939482 8.6811161 9.2863569 1675
6.1831064 9.3263893 9.2863569 1676
5.1079617 6.9398036 6.0805078 1706
5.8150616 6.9398036 6.0805078 1707
5.1018972 8.0034065 9.9872104 1721
4.9429216 8.6596861 0.1970062 1722
4.7839465 9.3159657 0.4068012 1723
5.2238879 3.4205358 1.9218374 1742
5.7603379 3.0947964 2.2475767 1743
6.0261483 7.5196672 2.4415369 1784
5.4548297 7.5196672 2.0249007 1785
4.8835116 7.5196672 1.6082645 1786
5.8404136 9.9887466 4.675467 1810
5.3543701 9.9887466 5.1890354 1811
4.8683268 9.9887466 5.7026034 1812
5.3972993 9.0003214 8.1707077 1847
6.1009712 8.9308644 8.1741352 1848
4.7739134 3.958514 5.4165368 1861
5.4810133 3.958514 5.4165368 1862
6.1881132 3.958514 5.4165368 1863
4.8906226 5.6612263 8.8813716 1905
5.2938604 6.1562591 9.1852331 1906
5.6970983 6.6512919 9.4890957 1907
6.1003361 7.1463246 9.7929573 1908
5.5172348 7.1288815 6.8362584 1961
6.2239289 7.1049337 6.8362584 1962
5.3603153 1.0780612 8.1707792 2004
6.0669847 1.1027308 8.1712103 2005
4.860579 8.3918762 5.2255573 2026
5.5676794 8.3918762 5.2255573 2027
4.9044324 0.848199 3.0601857 2047
5.5191393 1.1976633 3.0601857 2048
6.1338463 1.5471287 3.0601857 2049
5.106483 9.840335 5.0459299 2064
5.7400708 0.0623226 4.8239427 2065
5.4117508 8.8298817 3.6808157 2125
6.1063442 8.9295492 3.5936547 2126
5.8580748 9.909422 6.0469861 2161
5.7606602 3.0016723 4.1647005 2201
5.1245794 3.0016723 4.4735561 2202
4.8051043 1.2245724 0.9373582 2224
5.499034 1.2245724 1.0731968 2225
6.1929636 1.2245724 1.2090355 2226
4.8087902 1.7197676 5.6075926 2288
5.422802 2.0704527 5.6075926 2289
6.0368137 2.4211378 5.6075926 2290
4.7918163 5.6695485 3.2353153 2324
5.4952669 5.6731982 3.3069728 2325
6.1987171 5.676848 3.3786299 2326
5.0545454 7.2493281 9.9481412 2365
5.7616453 7.2493281 9.9481412 2366
5.2914586 3.5772546 8.3913937 2384
5.9985586 3.5772546 8.3913937 2385
5.6356373 0.151572 5.4184771 2401
4.9977908 0.3673755 5.2026739 2402
5.923812 7.7955985 2.7133951 2461
5.1569963 0.773691 3.689915 2487
5.8640962 0.773691 3.689915 2488
4.9304638 9.3949518 5.3276501 2514
5.1479988 8.9334384 5.817215 2515
5.3655338 8.4719239 6.3067799 2516
5.5830693 8.0104103 6.7963448 2517
5.8006044 7.5488963 7.2859097 2518
6.0181394 7.0873823 7.7754746 2519
6.2356749 6.6258683 8.2650395 2520
5.9183416 4.1447764 3.8681778 2547
5.5602107 3.5350776 3.8681778 2548
5.2020803 2.9253786 3.8681778 2549
4.8439494 2.3156796 3.8681778 2550
6.2007141 8.6217442 6.5902009 2581
5.9698806 9.0322027 7.1176758 2582
5.7390466 9.4426623 7.6451507 2583
5.5082131 9.8531208 8.1726255 2584
5.2773795 0.2635794 8.7001 2585
5.0465455 0.6740389 9.2275753 2586
4.815712 1.0844975 9.7550497 2587
5.5744038 5.5043221 0.0815401 2621
5.7158461 6.1971312 0.0815401 2622
5.8572884 6.8899404 0.0815401 2623
5.9987302 7.5827494 0.0815401 2624
6.1401725 8.2755585 0.0815401 2625
5.2700787 5.7553292 8.9430266 2641
5.0815887 6.0250497 9.5688963 2642
4.8930988 6.2947698 0.1947661 2643
5.3412295 0.7435089 3.7628863 2702
6.0482426 0.7356687 3.7707265 2703
5.4465809 4.8107677 0.8692624 2724
6.1536808 4.8107677 0.8692624 2725
5.0073915 1.3399905 1.5785297 2761
5.0305824 2.0640142 9.5006447 2905
5.6681977 2.3616877 9.5701294 2906
5.6693878 9.156332 1.4930938 2985
4.9696628 9.2581892 1.4930938 2986
ITEM: TIMESTEP
2
ITEM: NUMBER OF ATOMS
222
ITEM: BOX BOUNDS xy xz yz pp pp pp
0.0 10.0 1.2246499e-15
0.0 10.0 1.2246499e-15
0.0 10.0 1.2246499e-15
ITEM: ATOMS x y z id
5.5482354 1.4245558 3.1135531 5
6.1155987 1.8227549 3.2532895 6
6.6829624 2.220954 3.3930259 7
5.7788115 3.8399034 1.7009952 26
6.4859114 3.8399034 1.7009952 27
6.4911447 5.0463805 9.843647 45
5.9350176 5.4830876 9.843647 46
5.3788905 5.9197946 9.843647 47
5.2591944 9.1000242 4.2010422 136
5.5412326 8.6415243 4.6595421 137
5.8232708 8.1830244 5.118042 138
6.105309 7.724524 5.5765429 139
6.3873472 7.2660236 6.0350418 140
6.4579945 7.8726592 8.0198946 181
6.101881 1.221984 7.8742968 221
6.3666134 1.6643515 8.3582573 222
6.6313463 2.1067188 8.8422184 223
5.295341 0.297629 3.5534401 246
5.9705874 0.0877887 3.5534401 247
6.6458335 9.8779488 3.5534401 248
6.632699 2.9446812 3.7076357 281
5.3494949 4.2705999 2.3355827 310
5.6261244 4.0791326 2.9575206 311
5.9027538 3.8876654 3.5794592 312
6.1793833 3.6961978 4.2013969 313
6.4560128 3.5047305 4.8233347 314
6.7326422 3.313263 5.4452725 315
5.616045 6.4727435 2.4157162 324
6.2998319 6.4960566 2.237159 325
5.2889142 3.4104059 7.2014408 345
5.8750486 3.0148849 7.2014408 346
6.4611831 2.619364 7.2014408 347
6.2834044 0.8652148 0.1393856 426
5.6545034 0.541991 0.1393856 427
5.4479065 2.6021109 8.9357996 447
5.8982506 3.093957 8.7007094 448
6.3485947 3.585804 8.4656182 449
5.2907338 2.6329413 3.6238528 517
5.4472962 3.0481358 4.1743908 518
5.6038585 3.4633312 4.7249279 519
5.7604208 3.8785258 5.275466 520
5.9290706 6.0940385 8.1752853 522
6.6361704 6.0940385 8.1752853 523
5.9261308 5.872355 8.1525784 584
6.632988 5.8908888 8.1525784 585
5.3540907 8.8661338 0.8238259 668
5.8819652 9.3011246 1.0030518 669
6.4098392 9.7361164 1.1822767 670
5.7593498 3.9110828 2.6406348 724
6.4664498 3.9110828 2.6406348 725
5.629642 4.1050897 8.1883678 743
6.3367424 4.1050897 8.1883678 744
6.6235128 5.3190518 2.0547051 776
6.4407435 5.8020554 1.5717012 777
6.2579742 6.285059 1.0886972 778
6.0752049 6.7680645 0.6056932 779
5.8924356 7.2510681 0.1226891 780
5.8834096 8.6127119 3.0463278 803
6.5905094 8.6127119 3.0463278 804
6.210599 4.965756 9.0836973 861
6.2123699 9.5148878 7.462359 886
5.5191984 9.3752327 7.462359 887
5.3378363 6.3675933 5.467238 924
5.5472207 5.9110542 5.9649534 925
5.7566057 5.4545155 6.4626689 926
5.9659902 4.9979764 6.9603844 927
6.1753745 4.5414372 7.4580999 928
6.3847594 4.084898 7.9558148 929
6.5941439 3.6283593 8.4535303 930
5.3119459 4.9621 3.6476035 941
5.4288402 5.3335605 4.2378097 942
5.545734 5.7050214 4.8280158 943
5.6626277 6.0764818 5.418222 944
5.7795215 6.4479423 6.0084281 945
5.8964158 6.8194032 6.5986338 946
6.0133095 7.1908636 7.1888399 947
6.1302033 7.5623245 7.7790461 948
6.2470975 7.933785 8.3692522 949
6.3639913 8.3052454 8.9594584 950
6.4808851 8.6767063 9.5496645 951
6.5977793 9.0481672 0.1398706 952
6.7146731 9.4196272 0.7300768 953
6.7148996 4.2708311 6.9100718 1024
6.0081439 4.2708311 6.9321452 1025
5.3013888 4.2708311 6.9542184 1026
5.4648929 3.8517838 6.6556788 1106
5.7243886 4.2993879 7.1376567 1107
5.9838844 4.7469921 7.6196347 1108
6.2433801 5.1945968 8.101613 1109
6.5028758 5.642201 8.5835905 1110
5.855805 7.3889408 0.7412485 1141
6.375207 7.8687454 0.7412485 1142
6.6954322 2.4100444 2.3412695 1201
6.5929752 4.6945262 8.9998952 1221
5.5553227 7.3786297 4.5271182 1243
6.2542191 7.4585629 4.4553886 1244
5.4353256 3.3822937 5.4774566 1262
6.0776367 3.2081356 5.7164035 1263
6.7199483 3.0339775 5.9553504 1264
5.8728486 5.3325281 9.1707802 1302
6.5799485 5.3325281 9.1707802 1303
6.3488808 2.5847566 6.7007308 1321
5.750412 8.340972 3.8516684 1347
6.307065 8.6492968 3.5433438 1348
5.906406 9.549058 5.3857823 1367
6.6135059 9.549058 5.3857823 1368
5.3143802 1.4031528 3.9064326 1427
5.7576738 0.9195338 4.170239 1428
6.2009673 0.4359148 4.4340453 1429
6.6442609 9.9522954 4.6978517 1430
5.5234618 5.3581982 3.9504448 1446
6.2301498 5.3752599 3.9333828 1447
5.805583 7.6363983 1.7976258 1501
6.5126829 7.6363983 1.7976258 1502
5.4086585 0.8857514 5.7126632 1547
6.1157584 0.8857514 5.7126632 1548
5.3438568 4.6164947 1.440597 1564
5.8888416 4.7786103 1.0202389 1565
6.433826 4.9407254 0.599881 1566
5.6323934 2.6014967 6.6285148 1603
6.3171811 2.4252694 6.6285148 1604
6.5214157 3.9192818 6.2180419 1621
6.0656948 4.3015833 5.8357406 1622
5.6099744 4.6838846 5.4534388 1623
5.4380718 1.2526947 6.0054007 1647
6.1451206 1.2587266 5.9994202 1648
5.5264745 6.7452946 9.2863569 1672
5.8156324 7.3905678 9.2863569 1673
6.1047902 8.0358429 9.2863569 1674
6.3939481 8.6811161 9.2863569 1675
6.6831064 9.3263893 9.2863569 1676
5.6079617 6.9398036 6.0805078 1706
6.3150616 6.9398036 6.0805078 1707
5.6018973 8.0034065 9.9872104 1721
5.4429217 8.6596861 0.1970062 1722
5.2839465 9.3159657 0.4068012 1723
5.7238879 3.4205358 1.9218374 1742
6.2603378 3.0947964 2.2475767 1743
6.5261483 7.5196672 2.4415369 1784
5.9548298 7.5196672 2.0249007 1785
5.3835116 7.5196672 1.6082645 1786
6.3404136 9.9887466 4.675467 1810
5.8543702 9.9887466 5.1890354 1811
5.3683267 9.9887466 5.7026034 1812
5.8972994 9.0003214 8.1707077 1847
6.6009712 8.9308644 8.1741352 1848
5.2739134 3.958514 5.4165368 1861
5.9810134 3.958514 5.4165368 1862
6.6881132 3.958514 5.4165368 1863
5.3906226 5.6612263 8.8813716 1905
5.7938605 6.1562591 9.1852331 1906
6.1970983 6.6512919 9.4890957 1907
6.6003361 7.1463246 9.7929573 1908
6.0172348 7.1288815 6.8362584 1961
6.723929 7.1049337 6.8362584 1962
5.8603154 1.0780612 8.1707792 2004
6.5669847 1.1027308 8.1712103 2005
5.360579 8.3918762 5.2255573 2026
6.0676794 8.3918762 5.2255573 2027
5.4044323 0.848199 3.0601857 2047
6.0191393 1.1976633 3.0601857 2048
6.6338463 1.5471287 3.0601857 2049
5.606483 9.840335 5.0459299 2064
6.2400708 0.0623226 4.8239427 2065
5.9117508 8.8298817 3.6808157 2125
6.6063442 8.9295492 3.5936547 2126
6.3580747 9.909422 6.0469861 2161
6.2606602 3.0016723 4.1647005 2201
5.6245795 3.0016723 4.4735561 2202
5.3051043 1.2245724 0.9373582 2224
5.999034 1.2245724 1.0731968 2225
6.6929636 1.2245724 1.2090355 2226
5.3087902 1.7197676 5.6075926 2288
5.922802 2.0704527 5.6075926 2289
6.5368138 2.4211378 5.6075926 2290
5.2918162 5.6695485 3.2353153 2324
5.995267 5.6731982 3.3069728 2325
6.6987171 5.676848 3.3786299 2326
5.5545454 7.2493281 9.9481412 2365
6.2616453 7.2493281 9.9481412 2366
5.7914586 3.5772546 8.3913937 2384
6.4985585 3.5772546 8.3913937 2385
6.1356373 0.151572 5.4184771 2401
5.4977908 0.3673755 5.2026739 2402
6.4238119 7.7955985 2.7133951 2461
5.6569963 0.773691 3.689915 2487
6.3640962 0.773691 3.689915 2488
5.4304638 9.3949518 5.3276501 2514
5.6479988 8.9334384 5.817215 2515
5.8655338 8.4719239 6.3067799 2516
6.0830693 8.0104103 6.7963448 2517
6.3006044 7.5488963 7.2859097 2518
6.5181394 7.0873823 7.7754746 2519
6.7356749 6.6258683 8.2650395 2520
6.4183416 4.1447764 3.8681778 2547
6.0602107 3.5350776 3.8681778 2548
5.7020803 2.9253786 3.8681778 2549
5.3439493 2.3156796 3.8681778 2550
6.7007141 8.6217442 6.5902009 2581
6.4698806 9.0322027 7.1176758 2582
6.2390466 9.4426623 7.6451507 2583
6.008213 9.8531208 8.1726255 2584
5.7773795 0.2635794 8.7001 2585
5.5465455 0.6740389 9.2275753 2586
5.315712 1.0844975 9.7550497 2587
6.0744038 5.5043221 0.0815401 2621
6.2158461 6.1971312 0.0815401 2622
6.3572884 6.8899404 0.0815401 2623
6.4987302 7.5827494 0.0815401 2624
6.6401725 8.2755585 0.0815401 2625
5.7700787 5.7553292 8.9430266 2641
5.5815888 6.0250497 9.5688963 2642
5.3930988 6.2947698 0.1947661 2643
5.8412294 0.7435089 3.7628863 2702
6.5482426 0.7356687 3.7707265 2703
5.946581 4.8107677 0.8692624 2724
6.6536808 4.8107677 0.8692624 2725
5.5073915 1.3399905 1.5785297 2761
5.5305825 2.0640142 9.5006447 2905
6.1681976 2.3616877 9.5701294 2906
6.1693878 9.156332 1.4930938 2985
5.4696627 9.2581892 1.4930938 2986
ITEM: TIMESTEP
3
ITEM: NUMBER OF ATOMS
222
ITEM: BOX BOUNDS xy xz yz pp pp pp
0.0 10.0 1.2246499e-15
0.0 10.0 1.2246499e-15
0.0 10.0 1.2246499e-15
ITEM: ATOMS x y z id
6.0482354 1.4245558 3.1135531 5
6.6155987 1.8227549 3.2532895 6
7.1829624 2.220954 3.3930259 7
6.2788115 3.8399034 1.7009952 26
6.9859114 3.8399034 1.7009952 27
6.9911448 5.0463805 9.843647 45
6.4350176 5.4830876 9.843647 46
5.8788906 5.9197946 9.843647 47
5.7591944 9.1000242 4.2010422 136
6.0412326 8.6415243 4.6595421 137
6.3232708 8.1830244 5.118042 138
6.605309 7.724524 5.5765429 139
6.8873472 7.2660236 6.0350418 140
6.9579946 7.8726592 8.0198946 181
6.6018811 1.221984 7.8742968 221
6.8666134 1.6643515 8.3582573 222
7.1313462 2.1067188 8.8422184 223
5.795341 0.297629 3.5534401 246
6.4705873 0.0877887 3.5534401 247
7.1458335 9.8779488 3.5534401 248
7.132699 2.9446812 3.7076357 281
5.849495 4.2705999 2.3355827 310
6.1261244 4.0791326 2.9575206 311
6.4027538 3.8876654 3.5794592 312
6.6793833 3.6961978 4.2013969 313
6.9560128 3.5047305 4.8233347 314
7.2326422 3.313263 5.4452725 315
6.116045 6.4727435 2.4157162 324
6.7998319 6.4960566 2.237159 325
5.7889142 3.4104059 7.2014408 345
6.3750486 3.0148849 7.2014408 346
6.9611832 2.619364 7.2014408 347
6.7834044 0.8652148 0.1393856 426
6.1545034 0.541991 0.1393856 427
5.9479066 2.6021109 8.9357996 447
6.3982506 3.093957 8.7007094 448
6.8485948 3.585804 8.4656182 449
5.7907338 2.6329413 3.6238528 517
5.9472962 3.0481358 4.1743908 518
6.1038585 3.4633312 4.7249279 519
6.2604208 3.8785258 5.275466 520
6.4290705 6.0940385 8.1752853 522
7.1361704 6.0940385 8.1752853 523
6.4261308 5.872355 8.1525784 584
7.132988 5.8908888 8.1525784 585
5.8540908 8.8661338 0.8238259 668
6.3819652 9.3011246 1.0030518 669
6.9098392 9.7361164 1.1822767 670
6.2593498 3.9110828 2.6406348 724
6.9664498 3.9110828 2.6406348 725
6.129642 4.1050897 8.1883678 743
6.8367424 4.1050897 8.1883678 744
7.1235128 5.3190518 2.0547051 776
6.9407434 5.8020554 1.5717012 777
6.7579742 6.285059 1.0886972 778
6.5752049 6.7680645 0.6056932 779
6.3924356 7.2510681 0.1226891 780
6.3834095 8.6127119 3.0463278 803
7.0905094 8.6127119 3.0463278 804
6.710599 4.965756 9.0836973 861
6.7123699 9.5148878 7.462359 886
6.0191984 9.3752327 7.462359 887
5.8378363 6.3675933 5.467238 924
6.0472207 5.9110542 5.9649534 925
6.2566056 5.4545155 6.4626689 926
6.4659901 4.9979764 6.9603844 927
6.6753745 4.5414372 7.4580999 928
6.8847594 4.084898 7.9558148 929
7.0941439 3.6283593 8.4535303 930
5.8119459 4.9621 3.6476035 941
5.9288402 5.3335605 4.2378097 942
6.0457339 5.7050214 4.8280158 943
6.1626277 6.0764818 5.418222 944
6.2795215 6.4479423 6.0084281 945
6.3964157 6.8194032 6.5986338 946
6.5133095 7.1908636 7.1888399 947
6.6302033 7.5623245 7.7790461 948
6.7470975 7.933785 8.3692522 949
6.8639914 8.3052454 8.9594584 950
6.980885 8.6767063 9.5496645 951
7.0977793 9.0481672 0.1398706 952
7.2146731 9.4196272 0.7300768 953
7.2148996 4.2708311 6.9100718 1024
6.5081439 4.2708311 6.9321452 1025
5.8013888 4.2708311 6.9542184 1026
5.964893 3.8517838 6.6556788 1106
6.2243886 4.2993879 7.1376567 1107
6.4838844 4.7469921 7.6196347 1108
6.7433801 5.1945968 8.101613 1109
7.0028758 5.642201 8.5835905 1110
6.3558049 7.3889408 0.7412485 1141
6.875207 7.8687454 0.7412485 1142
7.1954322 2.4100444 2.3412695 1201
7.0929751 4.6945262 8.9998952 1221
6.0553227 7.3786297 4.5271182 1243
6.7542191 7.4585629 4.4553886 1244
5.9353256 3.3822937 5.4774566 1262
6.5776367 3.2081356 5.7164035 1263
7.2199483 3.0339775 5.9553504 1264
6.3728485 5.3325281 9.1707802 1302
7.0799484 5.3325281 9.1707802 1303
6.8488808 2.5847566 6.7007308 1321
6.250412 8.340972 3.8516684 1347
6.807065 8.6492968 3.5433438 1348
6.4064059 9.549058 5.3857823 1367
7.1135058 9.549058 5.3857823 1368
5.8143802 1.4031528 3.9064326 1427
6.2576738 0.9195338 4.170239 1428
6.7009673 0.4359148 4.4340453 1429
7.1442609 9.9522954 4.6978517 1430
6.0234618 5.3581982 3.9504448 1446
6.7301498 5.3752599 3.9333828 1447
6.305583 7.6363983 1.7976258 1501
7.0126829 7.6363983 1.7976258 1502
5.9086586 0.8857514 5.7126632 1547
6.6157584 0.8857514 5.7126632 1548
5.8438568 4.6164947 1.440597 1564
6.3888416 4.7786103 1.0202389 1565
6.933826 4.9407254 0.599881 1566
6.1323934 2.6014967 6.6285148 1603
6.8171811 2.4252694 6.6285148 1604
7.0214157 3.9192818 6.2180419 1621
6.5656948 4.3015833 5.8357406 1622
6.1099744 4.6838846 5.4534388 1623
5.9380718 1.2526947 6.0054007 1647
6.6451206 1.2587266 5.9994202 1648
6.0264745 6.7452946 9.2863569 1672
6.3156324 7.3905678 9.2863569 1673
6.6047902 8.0358429 9.2863569 1674
6.8939482 8.6811161 9.2863569 1675
7.1831064 9.3263893 9.2863569 1676
6.1079617 6.9398036 6.0805078 1706
6.8150616 6.9398036 6.0805078 1707
6.1018972 8.0034065 9.9872104 1721
5.9429216 8.6596861 0.1970062 1722
5.7839465 9.3159657 0.4068012 1723
6.2238879 3.4205358 1.9218374 1742
6.7603379 3.0947964 2.2475767 1743
7.0261483 7.5196672 2.4415369 1784
6.4548297 7.5196672 2.0249007 1785
5.8835116 7.5196672 1.6082645 1786
6.8404136 9.9887466 4.675467 1810
6.3543701 9.9887466 5.1890354 1811
5.8683268 9.9887466 5.7026034 1812
6.3972993 9.0003214 8.1707077 1847
7.1009712 8.9308644 8.1741352 1848
5.7739134 3.958514 5.4165368 1861
6.4810133 3.958514 5.4165368 1862
7.1881132 3.958514 5.4165368 1863
5.8906226 5.6612263 8.8813716 1905
6.2938604 6.1562591 9.1852331 1906
6.6970983 6.6512919 9.4890957 1907
7.1003361 7.1463246 9.7929573 1908
6.5172348 7.1288815 6.8362584 1961
7.2239289 7.1049337 6.8362584 1962
6.3603153 1.0780612 8.1707792 2004
7.0669847 1.1027308 8.1712103 2005
5.860579 8.3918762 5.2255573 2026
6.5676794 8.3918762 5.2255573 2027
5.9044324 0.848199 3.0601857 2047
6.5191393 1.1976633 3.0601857 2048
7.1338463 1.5471287 3.0601857 2049
6.106483 9.840335 5.0459299 2064
6.7400708 0.0623226 4.8239427 2065
6.4117508 8.8298817 3.6808157 2125
7.1063442 8.9295492 3.5936547 2126
6.8580748 9.909422 6.0469861 2161
6.7606602 3.0016723 4.1647005 2201
6.1245794 3.0016723 4.4735561 2202
5.8051043 1.2245724 0.9373582 2224
6.499034 1.2245724 1.0731968 2225
7.1929636 1.2245724 1.2090355 2226
5.8087902 1.7197676 5.6075926 2288
6.422802 2.0704527 5.6075926 2289
7.0368137 2.4211378 5.6075926 2290
5.7918163 5.6695485 3.2353153 2324
6.4952669 5.6731982 3.3069728 2325
7.1987171 5.676848 3.3786299 2326
6.0545454 7.2493281 9.9481412 2365
6.7616453 7.2493281 9.9481412 2366
6.2914586 3.5772546 8.3913937 2384
6.9985586 3.5772546 8.3913937 2385
6.6356373 0.151572 5.4184771 2401
5.9977908 0.3673755 5.2026739 2402
6.923812 7.7955985 2.7133951 2461
6.1569963 0.773691 3.689915 2487
6.8640962 0.773691 3.689915 2488
5.9304638 9.3949518 5.3276501 2514
6.1479988 8.9334384 5.817215 2515
6.3655338 8.4719239 6.3067799 2516
6.5830693 8.0104103 6.7963448 2517