ITEM: TIMESTEP
1
ITEM: NUMBER OF ATOMS
5
ITEM: BOX BOUNDS ff ff ff
-20 20
-20 20
-8.00066 8.00066
ITEM: ATOMS id x y z radius f_fixEleph[1] f_fixEleph[2] f_fixEleph[3] 
2326 -6.3494 -7.8912 -7.14365 1.25 0.277993 0.945923 6.69514e-204
1564 -5.46345 -7.91925 -7.6051 1.25 -0.0159838 0.923502 0.680096 
4034 -4.52814 -7.96294 -7.95474 1.25 -0.114299 0.888722 0.916042 
2927 -4.69315 -7.72346 -6.99839 1.25 0.105174 0.79217 0.391069 
1605 -3.70769 -7.73025 -7.37291 1.25 -0.0128596 0.789221 0.561434